 Gaussian 16, Revision A.03,
 Gaussian 16:  ES64L-G16RevA.03 25-Dec-2016

 -------------------------------------
 #p opt rb3lyp/6-31g geom=connectivity
 -------------------------------------

 -----------
 ACE+ALA+NME
 -----------
 Symbolic Z-matrix:
 Charge =  0 Multiplicity = 1

 SCF Done:  E(RB3LYP) =  -495.694134381     A.U. after   15 cycles
 SCF Done:  E(RB3LYP) =  -495.697432672     A.U. after   14 cycles
 SCF Done:  E(RB3LYP) =  -495.697126032     A.U. after   14 cycles
 SCF Done:  E(RB3LYP) =  -495.698002541     A.U. after   12 cycles
 SCF Done:  E(RB3LYP) =  -495.698034833     A.U. after   10 cycles
 SCF Done:  E(RB3LYP) =  -495.698038480     A.U. after   10 cycles
 SCF Done:  E(RB3LYP) =  -495.698041374     A.U. after    9 cycles
 SCF Done:  E(RB3LYP) =  -495.698042363     A.U. after    9 cycles
 SCF Done:  E(RB3LYP) =  -495.698042665     A.U. after    8 cycles
 SCF Done:  E(RB3LYP) =  -495.698042862     A.U. after    8 cycles
 SCF Done:  E(RB3LYP) =  -495.698042994     A.U. after    7 cycles
 SCF Done:  E(RB3LYP) =  -495.698043022     A.U. after    7 cycles
 Optimization completed.
    -- Stationary point found.

                         Standard orientation:
 ---------------------------------------------------------------------
 Center     Atomic      Atomic             Coordinates (Angstroms)
 Number     Number       Type             X           Y           Z
 ---------------------------------------------------------------------
      1          6           0       -2.765820    0.890608   -0.936963
      2          1           0       -2.236232    0.957070   -1.895775
      3          1           0       -2.559016    1.807571   -0.374127
      4          1           0       -3.836115    0.829435   -1.134627
      5          6           0       -2.363296   -0.358884   -0.172628
      6          8           0       -3.179940   -1.279977    0.048546
      7          7           0       -1.059853   -0.452891    0.249221
      8          1           0       -0.786014   -1.315617    0.710357
      9          6           0        0.009097    0.527839    0.100155
     10          1           0       -0.111246    1.056946   -0.853350
     11          6           0        0.034971    1.557187    1.257619
     12          1           0        0.189846    1.037705    2.208292
     13          1           0        0.839972    2.288782    1.122553
     14          1           0       -0.916947    2.094012    1.309947
     15          6           0        1.334946   -0.251816    0.079569
     16          8           0        1.439817   -1.356860    0.659428
     17          7           0        2.371718    0.359660   -0.560931
     18          1           0        2.208442    1.236735   -1.033422
     19          6           0        3.715228   -0.218043   -0.610117
     20          1           0        3.687096   -1.160660   -0.062000
     21          1           0        4.019919   -0.414594   -1.643518
     22          1           0        4.447469    0.448592   -0.141962
 ---------------------------------------------------------------------

 The electronic state is 1-A.
 Alpha  occ. eigenvalues --  -19.13172 -19.09939 -14.38240 -14.34812 -10.31041
 Alpha  occ. eigenvalues --  -10.28737 -10.25537 -10.22861 -10.19601 -10.18665
 Alpha  occ. eigenvalues --   -1.05959  -1.02671  -0.94511  -0.92408  -0.78796
 Alpha  occ. eigenvalues --   -0.74187  -0.72872  -0.66629  -0.61193  -0.58370
 Alpha  occ. eigenvalues --   -0.54498  -0.50143  -0.47731  -0.47108  -0.45822
 Alpha  occ. eigenvalues --   -0.45364  -0.43934  -0.42177  -0.41205  -0.40583
 Alpha  occ. eigenvalues --   -0.40268  -0.38367  -0.37561  -0.37361  -0.35207
 Alpha  occ. eigenvalues --   -0.27097  -0.27057  -0.24127  -0.23635
 Alpha virt. eigenvalues --   -0.00007   0.02669   0.04823   0.08542   0.10560
 Alpha virt. eigenvalues --    0.10928   0.12374   0.13912   0.15050   0.15400
 Alpha virt. eigenvalues --    0.15973   0.16486   0.16657   0.18557   0.19618

 Mulliken charges:
               1
     1  C   -0.485671
     2  H    0.157857
     3  H    0.152094
     4  H    0.182168
     5  C    0.502057
     6  O   -0.460359
     7  N   -0.619962
     8  H    0.350191
     9  C   -0.018833
    10  H    0.143266
    11  C   -0.382955
    12  H    0.168160
    13  H    0.130409
    14  H    0.154732
    15  C    0.546213
    16  O   -0.475850
    17  N   -0.635446
    18  H    0.318472
    19  C   -0.250967
    20  H    0.208092
    21  H    0.159131
    22  H    0.157201
 Sum of Mulliken charges =  -0.00000

 Dipole moment (field-independent basis, Debye):
    X=              4.6614    Y=              5.7294    Z=             -2.1749  Tot=              7.6997
 Quadrupole moment (field-independent basis, Debye-Ang):
   XX=            -65.0728   YY=            -64.3056   ZZ=            -58.8391
   XY=             -4.9046   XZ=             -2.5047   YZ=              0.2462

 Normal termination of Gaussian 16 at Sat Jul 18 16:52:50 2020.
