 Gaussian 16, Revision A.03,
 Gaussian 16:  ES64L-G16RevA.03 25-Dec-2016

 -------------------------------------
 #p opt rb3lyp/6-31g geom=connectivity
 -------------------------------------

 -----------
 ACE+ALA+NME
 -----------
 Symbolic Z-matrix:
 Charge =  0 Multiplicity = 1

 SCF Done:  E(RB3LYP) =  -495.679612031     A.U. after   15 cycles
 SCF Done:  E(RB3LYP) =  -495.689107364     A.U. after   16 cycles
 SCF Done:  E(RB3LYP) =  -495.691307297     A.U. after   15 cycles
 SCF Done:  E(RB3LYP) =  -495.691886342     A.U. after   13 cycles
 SCF Done:  E(RB3LYP) =  -495.695301837     A.U. after   14 cycles
 SCF Done:  E(RB3LYP) =  -495.698734096     A.U. after   15 cycles
 SCF Done:  E(RB3LYP) =  -495.699724799     A.U. after   13 cycles
 SCF Done:  E(RB3LYP) =  -495.702500143     A.U. after   14 cycles
 SCF Done:  E(RB3LYP) =  -495.703447106     A.U. after   12 cycles
 SCF Done:  E(RB3LYP) =  -495.703355984     A.U. after   13 cycles
 SCF Done:  E(RB3LYP) =  -495.703838269     A.U. after   12 cycles
 SCF Done:  E(RB3LYP) =  -495.703901330     A.U. after   11 cycles
 SCF Done:  E(RB3LYP) =  -495.703948945     A.U. after   11 cycles
 SCF Done:  E(RB3LYP) =  -495.703956601     A.U. after   12 cycles
 SCF Done:  E(RB3LYP) =  -495.703965779     A.U. after   11 cycles
 SCF Done:  E(RB3LYP) =  -495.703968998     A.U. after   11 cycles
 SCF Done:  E(RB3LYP) =  -495.703978132     A.U. after   11 cycles
 SCF Done:  E(RB3LYP) =  -495.703979537     A.U. after   10 cycles
 SCF Done:  E(RB3LYP) =  -495.703979967     A.U. after    9 cycles
 SCF Done:  E(RB3LYP) =  -495.703980012     A.U. after    7 cycles
 Optimization completed.
    -- Stationary point found.

                         Standard orientation:
 ---------------------------------------------------------------------
 Center     Atomic      Atomic             Coordinates (Angstroms)
 Number     Number       Type             X           Y           Z
 ---------------------------------------------------------------------
      1          6           0        3.151741    0.945013    0.677759
      2          1           0        3.985103    0.240446    0.781252
      3          1           0        2.801386    1.217865    1.677993
      4          1           0        3.537920    1.835572    0.176316
      5          6           0        2.071756    0.321101   -0.184219
      6          8           0        2.184178    0.225154   -1.424882
      7          7           0        0.961109   -0.142737    0.491402
      8          1           0        0.965071   -0.124777    1.502546
      9          6           0       -0.087473   -0.935872   -0.166154
     10          1           0        0.196667   -0.953195   -1.226354
     11          6           0       -0.139178   -2.371758    0.374041
     12          1           0       -0.307209   -2.379194    1.458235
     13          1           0       -0.968084   -2.908126   -0.092023
     14          1           0        0.799676   -2.890983    0.160423
     15          6           0       -1.473294   -0.267616   -0.085285
     16          8           0       -2.519379   -0.945626   -0.209756
     17          7           0       -1.474195    1.085941    0.081231
     18          1           0       -0.582522    1.552487    0.157023
     19          6           0       -2.703551    1.872916    0.086267
     20          1           0       -3.540352    1.175723    0.018360
     21          1           0       -2.794389    2.455650    1.009689
     22          1           0       -2.740052    2.557178   -0.769247
 ---------------------------------------------------------------------

 The electronic state is 1-A.
 Alpha  occ. eigenvalues --  -19.12232 -19.11070 -14.37391 -14.36122 -10.30695
 Alpha  occ. eigenvalues --  -10.29080 -10.23851 -10.21505 -10.20110 -10.17809
 Alpha  occ. eigenvalues --   -1.05070  -1.03713  -0.94355  -0.92087  -0.79055
 Alpha  occ. eigenvalues --   -0.74212  -0.71906  -0.64853  -0.60654  -0.58787
 Alpha  occ. eigenvalues --   -0.54572  -0.49405  -0.48794  -0.46277  -0.45972
 Alpha  occ. eigenvalues --   -0.44724  -0.42721  -0.41967  -0.40538  -0.40101
 Alpha  occ. eigenvalues --   -0.39088  -0.38558  -0.37113  -0.36486  -0.35169
 Alpha  occ. eigenvalues --   -0.27823  -0.25879  -0.25171  -0.24049
 Alpha virt. eigenvalues --    0.00599   0.01789   0.05930   0.09515   0.11316
 Alpha virt. eigenvalues --    0.12389   0.12699   0.14051   0.15210   0.15987
 Alpha virt. eigenvalues --    0.16401   0.16860   0.17375   0.18146   0.18776

 Mulliken charges:
               1
     1  C   -0.477346
     2  H    0.185459
     3  H    0.135629
     4  H    0.185390
     5  C    0.508906
     6  O   -0.458394
     7  N   -0.643422
     8  H    0.315912
     9  C   -0.048909
    10  H    0.222216
    11  C   -0.393739
    12  H    0.128963
    13  H    0.185322
    14  H    0.141240
    15  C    0.541922
    16  O   -0.482872
    17  N   -0.629454
    18  H    0.326080
    19  C   -0.247572
    20  H    0.200852
    21  H    0.147787
    22  H    0.156029
 Sum of Mulliken charges =  -0.00000

 Dipole moment (field-independent basis, Debye):
    X=              1.8699    Y=              2.4273    Z=              3.9738  Tot=              5.0180
 Quadrupole moment (field-independent basis, Debye-Ang):
   XX=            -66.7983   YY=            -56.1986   ZZ=            -62.8161
   XY=             -6.5581   XZ=              7.1987   YZ=              0.8325

 Normal termination of Gaussian 16 at Sat Jul 18 17:07:58 2020.
