 Gaussian 16, Revision A.03,
 Gaussian 16:  ES64L-G16RevA.03 25-Dec-2016

 -------------------------------------
 #p opt rb3lyp/6-31g geom=connectivity
 -------------------------------------

 -----------
 ACE+ALA+NME
 -----------
 Symbolic Z-matrix:
 Charge =  0 Multiplicity = 1

 SCF Done:  E(RB3LYP) =  -495.699273089     A.U. after   15 cycles
 SCF Done:  E(RB3LYP) =  -495.705206461     A.U. after   15 cycles
 SCF Done:  E(RB3LYP) =  -495.706393599     A.U. after   14 cycles
 SCF Done:  E(RB3LYP) =  -495.706379900     A.U. after   13 cycles
 SCF Done:  E(RB3LYP) =  -495.706794885     A.U. after   12 cycles
 SCF Done:  E(RB3LYP) =  -495.706922215     A.U. after   13 cycles
 SCF Done:  E(RB3LYP) =  -495.706942047     A.U. after   12 cycles
 SCF Done:  E(RB3LYP) =  -495.706951843     A.U. after   10 cycles
 SCF Done:  E(RB3LYP) =  -495.706958636     A.U. after   10 cycles
 SCF Done:  E(RB3LYP) =  -495.706966941     A.U. after   10 cycles
 SCF Done:  E(RB3LYP) =  -495.707008379     A.U. after   13 cycles
 SCF Done:  E(RB3LYP) =  -495.706576559     A.U. after   13 cycles
 SCF Done:  E(RB3LYP) =  -495.707150645     A.U. after   12 cycles
 SCF Done:  E(RB3LYP) =  -495.706778184     A.U. after   13 cycles
 SCF Done:  E(RB3LYP) =  -495.707233838     A.U. after   11 cycles
 SCF Done:  E(RB3LYP) =  -495.707244074     A.U. after   10 cycles
 SCF Done:  E(RB3LYP) =  -495.707247737     A.U. after   10 cycles
 SCF Done:  E(RB3LYP) =  -495.707248427     A.U. after    9 cycles
 SCF Done:  E(RB3LYP) =  -495.707248471     A.U. after    6 cycles
 SCF Done:  E(RB3LYP) =  -495.707248484     A.U. after    6 cycles
 Optimization completed on the basis of negligible forces.
    -- Stationary point found.

                         Standard orientation:
 ---------------------------------------------------------------------
 Center     Atomic      Atomic             Coordinates (Angstroms)
 Number     Number       Type             X           Y           Z
 ---------------------------------------------------------------------
      1          6           0       -3.371828   -1.144590    0.046331
      2          1           0       -4.136853   -0.743107    0.718594
      3          1           0       -2.953427   -2.053427    0.487917
      4          1           0       -3.868868   -1.401261   -0.894340
      5          6           0       -2.330617   -0.074664   -0.218533
      6          8           0       -2.626093    1.026706   -0.744816
      7          7           0       -1.052640   -0.379357    0.149347
      8          1           0       -0.792532   -1.280059    0.535089
      9          6           0        0.057518    0.538485   -0.073795
     10          1           0       -0.037551    0.953739   -1.086305
     11          6           0        0.050208    1.710517    0.935498
     12          1           0        0.146992    1.331622    1.957960
     13          1           0        0.871816    2.410012    0.742726
     14          1           0       -0.895358    2.248882    0.837798
     15          6           0        1.344312   -0.288901    0.032076
     16          8           0        1.337309   -1.442648    0.528674
     17          7           0        2.475596    0.316000   -0.424638
     18          1           0        2.405617    1.236978   -0.832393
     19          6           0        3.791752   -0.317957   -0.356394
     20          1           0        3.659849   -1.301082    0.097173
     21          1           0        4.220386   -0.439872   -1.356899
     22          1           0        4.481439    0.271273    0.257749
 ---------------------------------------------------------------------

 The electronic state is 1-A.
 Alpha  occ. eigenvalues --  -19.12876 -19.10048 -14.37706 -14.35025 -10.30583
 Alpha  occ. eigenvalues --  -10.28625 -10.24158 -10.22527 -10.18254 -10.18212
 Alpha  occ. eigenvalues --   -1.05548  -1.02733  -0.94064  -0.92156  -0.78830
 Alpha  occ. eigenvalues --   -0.73511  -0.71840  -0.65714  -0.60777  -0.58116
 Alpha  occ. eigenvalues --   -0.54351  -0.48862  -0.47886  -0.46598  -0.45639
 Alpha  occ. eigenvalues --   -0.44735  -0.43215  -0.41835  -0.40892  -0.40207
 Alpha  occ. eigenvalues --   -0.38677  -0.38360  -0.37247  -0.36780  -0.33974
 Alpha  occ. eigenvalues --   -0.26842  -0.26746  -0.24480  -0.23792
 Alpha virt. eigenvalues --    0.00462   0.02745   0.05944   0.09651   0.11180
 Alpha virt. eigenvalues --    0.12886   0.13931   0.14502   0.15230   0.15623
 Alpha virt. eigenvalues --    0.15984   0.17636   0.17967   0.18248   0.18742

 Mulliken charges:
               1
     1  C   -0.470954
     2  H    0.176811
     3  H    0.138813
     4  H    0.177233
     5  C    0.526328
     6  O   -0.493669
     7  N   -0.638537
     8  H    0.344490
     9  C   -0.009292
    10  H    0.176525
    11  C   -0.390344
    12  H    0.148593
    13  H    0.121107
    14  H    0.189305
    15  C    0.536832
    16  O   -0.489351
    17  N   -0.636278
    18  H    0.322873
    19  C   -0.250116
    20  H    0.204955
    21  H    0.157719
    22  H    0.156957
 Sum of Mulliken charges =  -0.00000

 Dipole moment (field-independent basis, Debye):
    X=              3.3578    Y=              0.3328    Z=              0.0137  Tot=              3.3742
 Quadrupole moment (field-independent basis, Debye-Ang):
   XX=            -54.4914   YY=            -63.2416   ZZ=            -61.2020
   XY=             13.0336   XZ=             -7.6520   YZ=              2.3141

 Normal termination of Gaussian 16 at Sat Jul 18 17:10:28 2020.
