 Gaussian 16, Revision A.03,
 Gaussian 16:  ES64L-G16RevA.03 25-Dec-2016

 -------------------------------------
 #p opt rb3lyp/6-31g geom=connectivity
 -------------------------------------

 -----------
 ACE+ALA+NME
 -----------
 Symbolic Z-matrix:
 Charge =  0 Multiplicity = 1

 SCF Done:  E(RB3LYP) =  -495.674856420     A.U. after   15 cycles
 SCF Done:  E(RB3LYP) =  -495.683602882     A.U. after   16 cycles
 SCF Done:  E(RB3LYP) =  -495.687432139     A.U. after   15 cycles
 SCF Done:  E(RB3LYP) =  -495.692316866     A.U. after   15 cycles
 SCF Done:  E(RB3LYP) =  -495.696209589     A.U. after   16 cycles
 SCF Done:  E(RB3LYP) =  -495.697106216     A.U. after   14 cycles
 SCF Done:  E(RB3LYP) =  -495.699353845     A.U. after   15 cycles
 SCF Done:  E(RB3LYP) =  -495.699733089     A.U. after   12 cycles
 SCF Done:  E(RB3LYP) =  -495.699911037     A.U. after   13 cycles
 SCF Done:  E(RB3LYP) =  -495.700043348     A.U. after   13 cycles
 SCF Done:  E(RB3LYP) =  -495.700887446     A.U. after   12 cycles
 SCF Done:  E(RB3LYP) =  -495.700897510     A.U. after   12 cycles
 SCF Done:  E(RB3LYP) =  -495.700897675     A.U. after   12 cycles
 SCF Done:  E(RB3LYP) =  -495.700901580     A.U. after   12 cycles
 SCF Done:  E(RB3LYP) =  -495.700901719     A.U. after    8 cycles
 SCF Done:  E(RB3LYP) =  -495.700902325     A.U. after    8 cycles
 SCF Done:  E(RB3LYP) =  -495.700902996     A.U. after    9 cycles
 SCF Done:  E(RB3LYP) =  -495.700903195     A.U. after    7 cycles
 SCF Done:  E(RB3LYP) =  -495.700903323     A.U. after    8 cycles
 SCF Done:  E(RB3LYP) =  -495.700903332     A.U. after    7 cycles
 Optimization completed.
    -- Stationary point found.

                         Standard orientation:
 ---------------------------------------------------------------------
 Center     Atomic      Atomic             Coordinates (Angstroms)
 Number     Number       Type             X           Y           Z
 ---------------------------------------------------------------------
      1          6           0       -2.000571   -0.709803   -1.415587
      2          1           0       -1.033893   -1.149056   -1.684383
      3          1           0       -2.153379    0.174325   -2.046664
      4          1           0       -2.794310   -1.426892   -1.625143
      5          6           0       -2.071506   -0.351120    0.053965
      6          8           0       -2.998567   -0.744344    0.793456
      7          7           0       -1.054105    0.434818    0.567540
      8          1           0       -1.193502    0.707387    1.534238
      9          6           0        0.051901    1.065589   -0.161388
     10          1           0       -0.256547    1.229627   -1.199413
     11          6           0        0.391833    2.432637    0.460006
     12          1           0        0.668169    2.321820    1.515908
     13          1           0        1.241256    2.869318   -0.069283
     14          1           0       -0.465643    3.108768    0.390708
     15          6           0        1.330721    0.204607   -0.243571
     16          8           0        2.314921    0.623361   -0.896381
     17          7           0        1.309644   -0.981849    0.422869
     18          1           0        0.469849   -1.223038    0.929739
     19          6           0        2.454390   -1.888561    0.443382
     20          1           0        3.234731   -1.448549   -0.179932
     21          1           0        2.839177   -2.015458    1.461494
     22          1           0        2.183874   -2.871264    0.042421
 ---------------------------------------------------------------------

 The electronic state is 1-A.
 Alpha  occ. eigenvalues --  -19.11974 -19.11667 -14.37047 -14.36947 -10.30498
 Alpha  occ. eigenvalues --  -10.29706 -10.25330 -10.22050 -10.19562 -10.19415
 Alpha  occ. eigenvalues --   -1.04898  -1.04298  -0.94576  -0.92573  -0.78778
 Alpha  occ. eigenvalues --   -0.75236  -0.72554  -0.66067  -0.60286  -0.59460
 Alpha  occ. eigenvalues --   -0.54546  -0.51137  -0.48552  -0.46408  -0.46090
 Alpha  occ. eigenvalues --   -0.44933  -0.42804  -0.41889  -0.41310  -0.40943
 Alpha  occ. eigenvalues --   -0.39700  -0.38858  -0.38329  -0.36997  -0.35871
 Alpha  occ. eigenvalues --   -0.28226  -0.25865  -0.25573  -0.24210
 Alpha virt. eigenvalues --    0.00645   0.01094   0.06746   0.08779   0.09733
 Alpha virt. eigenvalues --    0.11931   0.12636   0.14349   0.15055   0.15538
 Alpha virt. eigenvalues --    0.15815   0.16339   0.16644   0.17512   0.18430

 Mulliken charges:
               1
     1  C   -0.481656
     2  H    0.165234
     3  H    0.170589
     4  H    0.184049
     5  C    0.488806
     6  O   -0.453304
     7  N   -0.644919
     8  H    0.325613
     9  C   -0.016369
    10  H    0.179535
    11  C   -0.417078
    12  H    0.140226
    13  H    0.188725
    14  H    0.152055
    15  C    0.536476
    16  O   -0.483832
    17  N   -0.632105
    18  H    0.334185
    19  C   -0.248744
    20  H    0.201192
    21  H    0.155724
    22  H    0.155597
 Sum of Mulliken charges =  -0.00000

 Dipole moment (field-independent basis, Debye):
    X=              0.7704    Y=             -0.1149    Z=              0.5496  Tot=              0.9533
 Quadrupole moment (field-independent basis, Debye-Ang):
   XX=            -78.9334   YY=            -55.6256   ZZ=            -59.2330
   XY=             -9.5297   XZ=             11.1713   YZ=              2.6048

 Normal termination of Gaussian 16 at Sat Jul 18 17:12:39 2020.
